# vtk DataFile Version 3.0 
2D Unstructured Grid
ASCII
DATASET UNSTRUCTURED_GRID
POINTS 8596 float 
-4 -4 0.
-4 4 0.
4 -4 0.
4 4 0.
-4 3.9 0.
-4 3.8 0.
-4 3.7 0.
-4 3.6 0.
-4 3.5 0.
-4 3.4 0.
-4 3.3 0.
-4 3.2 0.
-4 3.1 0.
-4 3 0.
-4 2.9 0.
-4 2.8 0.
-4 2.7 0.
-4 2.6 0.
-4 2.5 0.
-4 2.4 0.
-4 2.3 0.
-4 2.2 0.
-4 2.1 0.
-4 2 0.
-4 1.9 0.
-4 1.8 0.
-4 1.7 0.
-4 1.6 0.
-4 1.5 0.
-4 1.4 0.
-4 1.3 0.
-4 1.2 0.
-4 1.1 0.
-4 1 0.
-4 0.9 0.
-4 0.8 0.
-4 0.7 0.
-4 0.6 0.
-4 0.5 0.
-4 0.4 0.
-4 0.3 0.
-4 0.2 0.
-4 0.1 0.
-4 1.100897e-11 0.
-4 -0.1 0.
-4 -0.2 0.
-4 -0.3 0.
-4 -0.4 0.
-4 -0.5 0.
-4 -0.6 0.
-4 -0.7 0.
-4 -0.8 0.
-4 -0.9 0.
-4 -1 0.
-4 -1.1 0.
-4 -1.2 0.
-4 -1.3 0.
-4 -1.4 0.
-4 -1.5 0.
-4 -1.6 0.
-4 -1.7 0.
-4 -1.8 0.
-4 -1.9 0.
-4 -2 0.
-4 -2.1 0.
-4 -2.2 0.
-4 -2.3 0.
-4 -2.4 0.
-4 -2.5 0.
-4 -2.6 0.
-4 -2.7 0.
-4 -2.8 0.
-4 -2.9 0.
-4 -3 0.
-4 -3.1 0.
-4 -3.2 0.
-4 -3.3 0.
-4 -3.4 0.
-4 -3.5 0.
-4 -3.6 0.
-4 -3.7 0.
-4 -3.8 0.
-4 -3.9 0.
-3.9 -4 0.
-3.8 -4 0.
-3.7 -4 0.
-3.6 -4 0.
-3.5 -4 0.
-3.4 -4 0.
-3.3 -4 0.
-3.2 -4 0.
-3.1 -4 0.
-3 -4 0.
-2.9 -4 0.
-2.8 -4 0.
-2.7 -4 0.
-2.6 -4 0.
-2.5 -4 0.
-2.4 -4 0.
-2.3 -4 0.
-2.2 -4 0.
-2.1 -4 0.
-2 -4 0.
-1.9 -4 0.
-1.8 -4 0.
-1.7 -4 0.
-1.6 -4 0.
-1.5 -4 0.
-1.4 -4 0.
-1.3 -4 0.
-1.2 -4 0.
-1.1 -4 0.
-1 -4 0.
-0.9 -4 0.
-0.8 -4 0.
-0.7 -4 0.
-0.6 -4 0.
-0.5 -4 0.
-0.4 -4 0.
-0.3 -4 0.
-0.2 -4 0.
-0.1 -4 0.
-1.100897e-11 -4 0.
0.1 -4 0.
0.2 -4 0.
0.3 -4 0.
0.4 -4 0.
0.5 -4 0.
0.6 -4 0.
0.7 -4 0.
0.8 -4 0.
0.9 -4 0.
1 -4 0.
1.1 -4 0.
1.2 -4 0.
1.3 -4 0.
1.4 -4 0.
1.5 -4 0.
1.6 -4 0.
1.7 -4 0.
1.8 -4 0.
1.9 -4 0.
2 -4 0.
2.1 -4 0.
2.2 -4 0.
2.3 -4 0.
2.4 -4 0.
2.5 -4 0.
2.6 -4 0.
2.7 -4 0.
2.8 -4 0.
2.9 -4 0.
3 -4 0.
3.1 -4 0.
3.2 -4 0.
3.3 -4 0.
3.4 -4 0.
3.5 -4 0.
3.6 -4 0.
3.7 -4 0.
3.8 -4 0.
3.9 -4 0.
4 -3.9 0.
4 -3.8 0.
4 -3.7 0.
4 -3.6 0.
4 -3.5 0.
4 -3.4 0.
4 -3.3 0.
4 -3.2 0.
4 -3.1 0.
4 -3 0.
4 -2.9 0.
4 -2.8 0.
4 -2.7 0.
4 -2.6 0.
4 -2.5 0.
4 -2.4 0.
4 -2.3 0.
4 -2.2 0.
4 -2.1 0.
4 -2 0.
4 -1.9 0.
4 -1.8 0.
4 -1.7 0.
4 -1.6 0.
4 -1.5 0.
4 -1.4 0.
4 -1.3 0.
4 -1.2 0.
4 -1.1 0.
4 -1 0.
4 -0.9 0.
4 -0.8 0.
4 -0.7 0.
4 -0.6 0.
4 -0.5 0.
4 -0.4 0.
4 -0.3 0.
4 -0.2 0.
4 -0.1 0.
4 -1.100897e-11 0.
4 0.1 0.
4 0.2 0.
4 0.3 0.
4 0.4 0.
4 0.5 0.
4 0.6 0.
4 0.7 0.
4 0.8 0.
4 0.9 0.
4 1 0.
4 1.1 0.
4 1.2 0.
4 1.3 0.
4 1.4 0.
4 1.5 0.
4 1.6 0.
4 1.7 0.
4 1.8 0.
4 1.9 0.
4 2 0.
4 2.1 0.
4 2.2 0.
4 2.3 0.
4 2.4 0.
4 2.5 0.
4 2.6 0.
4 2.7 0.
4 2.8 0.
4 2.9 0.
4 3 0.
4 3.1 0.
4 3.2 0.
4 3.3 0.
4 3.4 0.
4 3.5 0.
4 3.6 0.
4 3.7 0.
4 3.8 0.
4 3.9 0.
3.9 4 0.
3.8 4 0.
3.7 4 0.
3.6 4 0.
3.5 4 0.
3.4 4 0.
3.3 4 0.
3.2 4 0.
3.1 4 0.
3 4 0.
2.9 4 0.
2.8 4 0.
2.7 4 0.
2.6 4 0.
2.5 4 0.
2.4 4 0.
2.3 4 0.
2.2 4 0.
2.1 4 0.
2 4 0.
1.9 4 0.
1.8 4 0.
1.7 4 0.
1.6 4 0.
1.5 4 0.
1.4 4 0.
1.3 4 0.
1.2 4 0.
1.1 4 0.
1 4 0.
0.9 4 0.
0.8 4 0.
0.7 4 0.
0.6 4 0.
0.5 4 0.
0.4 4 0.
0.3 4 0.
0.2 4 0.
0.1 4 0.
1.100897e-11 4 0.
-0.1 4 0.
-0.2 4 0.
-0.3 4 0.
-0.4 4 0.
-0.5 4 0.
-0.6 4 0.
-0.7 4 0.
-0.8 4 0.
-0.9 4 0.
-1 4 0.
-1.1 4 0.
-1.2 4 0.
-1.3 4 0.
-1.4 4 0.
-1.5 4 0.
-1.6 4 0.
-1.7 4 0.
-1.8 4 0.
-1.9 4 0.
-2 4 0.
-2.1 4 0.
-2.2 4 0.
-2.3 4 0.
-2.4 4 0.
-2.5 4 0.
-2.6 4 0.
-2.7 4 0.
-2.8 4 0.
-2.9 4 0.
-3 4 0.
-3.1 4 0.
-3.2 4 0.
-3.3 4 0.
-3.4 4 0.
-3.5 4 0.
-3.6 4 0.
-3.7 4 0.
-3.8 4 0.
-3.9 4 0.
0.01174228 0.002152701 0.
-1.65142 1.646822 0.
-1.657018 -1.657018 0.
1.661085 -1.651125 0.
1.655988 1.643369 0.
-2.253102 -0.003454735 0.
-0.003393343 -2.234084 0.
2.242566 1.615135e-13 0.
-0.005584773 2.238593 0.
-2.630146 2.625583 0.
-2.625583 -2.630146 0.
2.630146 -2.625583 0.
2.625583 2.630146 0.
-1.133855 -0.5266345 0.
1.123731 -0.5472426 0.
0.5211369 1.117446 0.
-1.126199 -2.774471 0.
2.761193 -1.119745 0.
1.119811 2.761184 0.
-2.76402 1.119111 0.
-2.776914 -1.114853 0.
1.114131 -2.794931 0.
2.784625 1.120616 0.
-1.117061 2.766352 0.
-1.003332 0.6495939 0.
-0.1703442 -1.096533 0.
1.324817 0.4629167 0.
-0.7198322 1.564117 0.
0.6806312 -1.582435 0.
-3.096942 0.2842854 0.
-0.2670699 -3.101605 0.
3.103746 -0.2963357 0.
0.2796838 3.099146 0.
-0.7714735 -1.796562 0.
-1.872217 0.8061594 0.
-3.125666 1.913096 0.
-1.913096 -3.125666 0.
3.125666 -1.913096 0.
1.913096 3.125666 0.
-3.127206 -1.911854 0.
1.911854 -3.127206 0.
3.127206 1.911854 0.
-1.911854 3.127206 0.
1.947653 -0.8238517 0.
0.8204237 1.945929 0.
-1.945929 -0.8204237 0.
-0.185043 0.7836328 0.
-3.196087 3.196087 0.
-3.196087 -3.196087 0.
3.196087 -3.196087 0.
3.196087 3.196087 0.
1.98658 0.9354979 0.
-3.222741 -0.4877829 0.
-0.4877829 3.222741 0.
0.4877829 -3.222741 0.
3.222741 0.4877829 0.
-1.912069 -2.361848 0.
2.378541 -1.895174 0.
1.895174 2.378541 0.
-2.374698 1.904745 0.
-1.770036 2.397251 0.
-2.397875 -1.768656 0.
1.770068 -2.397262 0.
2.399814 1.771481 0.
-1.520795 0.1028531 0.
0.3839493 -0.628551 0.
0.7119655 0.0866241 0.
-0.7040774 0.02508618 0.
-0.01024317 1.5481 0.
1.215383 1.14007 0.
-0.6826064 2.23952 0.
-1.158452 -1.231921 0.
0.6765233 -2.25282 0.
-3.335346 2.544654 0.
-2.544654 -3.335346 0.
3.335346 -2.544654 0.
2.544654 3.335346 0.
-3.335346 -2.544654 0.
2.544654 -3.335346 0.
3.335346 2.544654 0.
-2.544654 3.335346 0.
1.215069 -1.172051 0.
1.607492 -0.1120804 0.
-0.8704733 -3.362351 0.
3.350433 -0.8763784 0.
0.8763784 3.350433 0.
-3.371206 0.8619931 0.
-0.3677888 -0.5209159 0.
-3.362436 -1.334131 0.
1.309117 -3.353045 0.
3.362436 1.334131 0.
-1.335064 3.350725 0.
-0.6156894 -2.388265 0.
-1.280349 -2.150888 0.
-2.600978 -0.5213658 0.
2.603078 0.5057543 0.
-2.442951 0.5941997 0.
2.543962 -0.5398798 0.
0.5420924 2.539516 0.
-1.196026 1.229143 0.
-2.218894 1.333297 0.
0.3452108 0.5347207 0.
1.263303 -2.095646 0.
0.125305 -1.648274 0.
-1.264218 2.095051 0.
2.219139 -1.33785 0.
1.349169 2.219607 0.
-1.393036 -3.420991 0.
3.428686 -1.427488 0.
1.427488 3.428686 0.
-3.428686 1.427488 0.
-0.3270746 2.686954 0.
0.3425975 -2.679684 0.
1.869393 0.3945473 0.
-0.6714428 -0.9545304 0.
-2.082738 -1.339058 0.
0.3700162 -1.163593 0.
0.8569802 0.6946048 0.
-0.6567919 1.054031 0.
-1.616016 -0.4083129 0.
-0.05344371 3.492087 0.
-3.484441 -0.05678881 0.
0.05341004 -3.492639 0.
3.484441 0.05678881 0.
0.7941368 -0.8968117 0.
-2.73069 -0.03513518 0.
2.72962 0.03115688 0.
-1.605178 -2.746964 0.
2.7518 -1.584814 0.
1.584814 2.7518 0.
-2.749601 1.588273 0.
-2.699574 -2.145615 0.
2.145615 -2.699574 0.
2.699574 2.145615 0.
-2.145615 2.699574 0.
0.4725133 1.597291 0.
2.080997 1.405435 0.
-0.3401721 1.902792 0.
1.167143 1.613914 0.
-0.8768449 3.518812 0.
-3.518405 -0.8670666 0.
0.8768492 -3.51851 0.
3.518738 0.8675702 0.
-1.624174 -1.171719 0.
-0.3392027 0.3312521 0.
-0.3518154 -1.546098 0.
-3.52946 -3.52946 0.
3.52946 -3.52946 0.
3.52946 3.52946 0.
-3.52946 3.52946 0.
-1.460802 0.5766509 0.
-1.920324 0.3514804 0.
-3.537369 0.4344124 0.
0.437505 3.534343 0.
-0.4336447 -3.540673 0.
3.534343 -0.437505 0.
-2.739757 2.165753 0.
-2.165753 -2.739757 0.
2.739757 -2.165753 0.
2.165753 2.739757 0.
-3.540063 2.133132 0.
-2.133132 -3.540063 0.
3.540063 -2.133132 0.
2.133132 3.540063 0.
-2.12923 3.536394 0.
-3.536394 -2.12923 0.
2.12923 -3.536394 0.
3.536394 2.12923 0.
1.167907 -1.64806 0.
1.684595 -1.182336 0.
-0.6720564 -2.853499 0.
-0.231563 -2.655797 0.
-1.574563 2.814393 0.
-2.814393 -1.574563 0.
1.574563 -2.814393 0.
2.814393 1.574563 0.
1.151285 -0.08680696 0.
-1.670411 1.207148 0.
1.556954 -0.5749841 0.
-2.899018 0.6795151 0.
-1.215536 -1.672898 0.
1.985279 -0.3617194 0.
0.115021 2.6806 0.
-0.3764146 -1.997574 0.
-3.555414 2.9323 0.
-2.9323 -3.555414 0.
3.555414 -2.9323 0.
2.9323 3.555414 0.
-3.555414 -2.9323 0.
2.9323 -3.555414 0.
3.555414 2.9323 0.
-2.9323 3.555414 0.
0.09169132 1.118326 0.
-1.133945 1.670373 0.
1.547427 0.8429948 0.
-2.162854 -0.4350174 0.
-2.375209 -0.90154 0.
0.3761987 2.042578 0.
2.958732 -0.7122856 0.
0.6965184 2.955187 0.
-2.001218 -1.935376 0.
1.938214 -1.993112 0.
1.982077 1.925059 0.
-1.931358 1.993997 0.
-1.125887 -0.09649962 0.
2.361964 -0.9355606 0.
0.9102027 2.364656 0.
0.3839154 -0.1941313 0.
-1.700314 3.571393 0.
-3.571393 -1.700314 0.
1.700314 -3.571393 0.
3.571393 1.700314 0.
-2.815354 -3.00836 0.
3.00836 -2.815354 0.
2.815354 3.00836 0.
-3.00836 2.815354 0.
2.409022 0.8943094 0.
-1.458642 -0.8064671 0.
0.7104411 -2.872132 0.
-0.7113316 2.876668 0.
0.4402812 -1.910843 0.
-2.33683 2.330016 0.
-2.330016 -2.33683 0.
2.33683 -2.330016 0.
2.330016 2.33683 0.
-0.003904235 -0.7044803 0.
1.688878 1.24366 0.
-0.2998394 1.260437 0.
3.10583 0.8755277 0.
-3.10583 -0.8755277 0.
-0.7637208 -1.365719 0.
0.7395812 -0.3974528 0.
-0.1309505 3.03758 0.
0.8364074 1.405771 0.
0.1272454 -3.038385 0.
-0.5924389 0.6437155 0.
-0.7502007 -0.3679155 0.
-2.391848 0.9816587 0.
1.005833 -3.135435 0.
2.469406 1.365112 0.
-1.858967 -0.08941907 0.
-1.007361 3.132867 0.
1.372733 -2.466153 0.
-1.372831 2.46627 0.
-1.155517 0.290135 0.
-2.472269 -1.378681 0.
-3.612073 -0.4279665 0.
0.4279713 -3.611875 0.
3.624669 0.4160622 0.
-0.4280823 3.61182 0.
0.8860282 -1.929399 0.
-2.95995 -2.432796 0.
2.432796 -2.95995 0.
2.95995 2.432796 0.
-2.432796 2.95995 0.
3.07453 0.1333541 0.
-3.07453 -0.1333541 0.
2.206814 0.5638378 0.
-1.377222 -3.048127 0.
3.052627 -1.372876 0.
-3.052627 1.372876 0.
1.372876 3.052627 0.
-0.3563781 -0.1271899 0.
-1.662687 -2.086089 0.
-3.632486 1.76313 0.
1.76313 3.632486 0.
-1.76313 -3.632486 0.
3.632486 -1.76313 0.
-0.9848948 -2.428976 0.
0.9674575 0.3372908 0.
-2.733716 0.3304778 0.
-0.8485314 1.909684 0.
0.3279046 0.1682257 0.
0.08811336 -0.3777752 0.
1.120993 3.632225 0.
-1.124895 -3.633465 0.
3.632225 -1.120993 0.
-3.632225 1.120993 0.
-1.009601 2.423956 0.
1.026269 -2.421216 0.
0.01924733 0.3809628 0.
-1.425682 0.9517173 0.
1.329692 -0.834845 0.
-2.968536 2.439983 0.
-2.437647 -2.99902 0.
2.99902 -2.437647 0.
2.437647 2.99902 0.
2.013424 -1.645758 0.
1.622439 2.028102 0.
-3.141798 -2.852297 0.
2.852297 -3.141798 0.
3.141798 2.852297 0.
-2.852297 3.141798 0.
-2.020016 1.660385 0.
-1.0144 -0.8823555 0.
0.865785 -1.26148 0.
-1.350932 -2.500201 0.
-0.8136481 0.3733461 0.
0.04607216 1.889005 0.
-0.3381859 2.336494 0.
[...]
CELL_DATA 16870
SCALARS sol float 1
LOOKUP_TABLE default
0
0
0
0
1.035186e-15
0
0
3.956935e-15
1.10592e-14
0
0
0
1.094517e-29
2.761315e-38
0
0
5.736486e-29
0
0
2.155894e-12
4.514883e-12
0
0
3.092774e-15
0
0
6.000898e-39
0
1.252078e-11
4.625246e-13
1.082514e-10
3.4319e-11
1.42276e-35
1.075235e-21
0
0
4.072989e-13
0
0
0
1.450107e-17
0
0
2.978619e-18
0
3.455115e-18
0
0
4.623354e-19
3.646529e-22
2.205289e-11
0
9.969794e-38
1.116072e-38
0
0
1.103342e-12
0
0
0.01193281
1.524158e-26
0
0
0
1.660277e-34
0.01158472
7.723197e-33
1.639389e-32
3.693109e-16
5.298474e-16
4.643918e-16
6.428859e-17
0
0
1.469177e-07
1.029852e-07
3.521809e-12
7.053946e-12
1.867057e-19
0
0
0
0
0
5.09894e-21
0
0
0
0
0
1.316664e-33
2.192146e-07
3.052186e-27
0
0
4.168237e-14
0
0
0
0
1.125873e-14
0
0
0
0
0.0003840303
0
7.31724e-32
1.849939e-09
0
3.406729e-10
0
0
0
0.000603291
1.408098e-09
2.345112e-20
0
4.733042e-26
0
0
9.101134e-22
0
1.413165e-19
0
0
0
3.965244e-24
0
2.061075e-25
0
6.807769e-21
0
1.780714e-23
6.351206e-12
0
0
1.806763e-08
0
0
2.902089e-42
8.085492e-42
1.882775e-15
1.363463e-42
4.480306e-16
6.856244e-17
0
0
0
5.375897e-09
0
0
1.268595e-41
1.035862e-09
0
0
1.901161e-14
5.963835e-29
0
0
0.0001145351
8.3161e-22
2.207862e-26
0
0
0
4.118305e-22
0
1.861946e-13
8.732407e-27
5.896736e-27
2.98565e-28
3.417291e-20
0
0
0
0.04359013
0.5779889
0
3.219177e-37
3.627158e-25
0
0
0
5.736609e-26
0
0
0
6.03968e-40
5.357982e-14
0
5.511421e-16
0
0
0
0
3.637938e-16
0
1.946678e-37
1.18277e-05
0
0
0
5.893448e-14
7.321376e-37
2.342877e-27
0
5.169659e-38
4.597802e-37
3.024828e-18
0
0
1.402006e-18
0
0
0
0
5.249874e-20
1.6822e-20
1.670288e-14
2.727777e-06
0
0
2.258108e-40
2.55838e-12
1.09169e-38
4.135645e-06
0
0
1.083169e-39
4.043419e-37
0
5.060152e-26
0
0
0
3.96743e-26
0
0
0
3.510203e-36
4.367299e-06
0
0
0
0
0
5.976329e-14
7.426882e-44
1.642284e-18
5.213855e-10
0
0
0
0.006816614
1.32106e-05
0
2.153218e-38
2.493318e-16
0
0
5.413526e-28
2.336238e-27
3.723911e-21
4.361056e-09
0
2.173772e-22
0
2.81427e-05
0
0
0
1.243373e-25
0
7.564174e-05
0
0
2.773769e-05
0
4.868199e-36
3.12786e-35
1.473361e-23
0.202078
0
4.042215e-14
0
0
6.190364e-28
0
0
0
4.512447e-40
6.365067e-36
5.309143e-22
3.233383e-09
5.83234e-09
1.659976e-27
0.0002099022
7.070273e-17
2.798507e-17
0
0
3.879227e-14
7.284649e-26
1.920411e-25
6.766761e-15
4.382419e-35
0
4.862779e-09
0
6.946399e-19
6.874822e-19
7.364524e-07
5.605194e-45
0
2.92856e-16
8.438836e-18
0.0005173351
3.722353e-25
3.361299e-25
1.521657e-10
0
0
6.13556e-33
1.156437e-39
0
9.809089e-45
0
1.599838e-13
0
0
2.103459e-09
0
7.601981e-30
0
0
0
0
0
0
0
0
2.107892e-28
2.721435e-13
5.797461e-22
0.04247196
0.07713675
4.529272e-05
0
1.614606e-05
1.2081e-26
8.573336e-27
1.623194e-16
8.8496e-05
2.672996e-32
0
4.461249e-07
0
0
0.03538823
4.727501e-16
0
0
1.294381e-15
0
0
0
0
0
0
0
0
8.493075e-26
0
9.162737e-15
1.261478e-38
0
0
0
9.81081e-05
2.266397e-31
4.051421e-38
3.123091e-07
0
1.513896e-05
0.6685646
9.315705e-32
0
2.802597e-45
0
6.551038e-13
0
0
0
0
9.479218e-07
0
0
2.260935e-06
0
0
4.226051e-19
0
5.124297e-33
0
1.547676e-20
1.267923e-19
0.2761738
1.308323e-28
0
9.744854e-40
5.97478e-24
2.954262e-13
3.976262e-21
0
0
0
0
0
0
0
2.302784e-12
0
0
0
0.07557543
0.07021739
8.801333e-05
1.004995e-06
2.503992e-26
0
0
0
9.468137e-38
1.29527e-23
2.692105e-24
1.546549e-07
0
0
0
3.114281e-22
0
2.650806e-26
0
0.04961947
0.06668785
3.915126e-18
0
0
2.367619e-37
9.101014e-11
0
0
2.338809e-06
4.217773e-14
0.002853738
1.153648e-10
0
0
7.657779e-28
3.017401e-05
6.66391e-25
8.826327e-26
5.894242e-07
1.403659e-36
0.000229859
2.727936e-37
1.5113e-41
1.944246e-16
1.807714e-11
7.802105e-08
0
1.579337e-21
0
0
1.984689e-15
0
7.30104e-16
0
0
0
2.719721e-16
0
0
4.45117e-06
0
0
1.078422e-05
0
0
1.073469e-33
1.20966e-32
2.641114e-16
0
0
0
8.003884e-20
1.601684e-42
4.619634e-06
0.003480568
0
0
3.621598e-25
2.031408e-34
0
1.544177e-18
0
1.212651e-38
0
6.496443e-19
0
0
3.749231e-11
0
0
9.299619e-33
4.413145e-33
5.038796e-34
5.242141e-10
0
0
4.556262e-28
0
1.562715e-15
7.197807e-15
0.04223747
0
0
0
7.924922e-10
2.230265e-24
1.633991e-10
8.664143e-27
1.461746e-16
3.156514e-13
5.044864e-29
0
0
0
5.914701e-35
2.775874e-29
0
1.62202e-27
1.013207e-39
2.491374e-06
0
0
1.002416e-16
0
0
0
5.055039e-05
4.165902e-29
2.952202e-16
7.635648e-16
0
0
0
1.017386e-06
4.823422e-13
6.307291e-38
1.367641e-24
2.720083e-30
1.667383e-29
6.315816e-05
0
0
0
5.051203e-09
1.815153e-06
7.300729e-12
2.446747e-07
0
0
0
2.280249e-40
0
1.204292e-08
6.095952e-26
0.06723066
1.280966e-24
1.711636e-25
5.493135e-14
3.379416e-32
1.081378e-16
0
7.906666e-22
0
1.45138e-14
3.916777e-06
0
6.852693e-09
0
3.979204e-16
0
0
1.63597e-10
0
1.313279e-16
0
0
0
1.324759e-20
0
0
4.319634e-08
9.431229e-08
0
0
1.492546e-05
0
0
3.247717e-23
0
2.482214e-20
0
0
6.891486e-39
3.595715e-39
5.645074e-12
0
0
3.044579e-21
0
0
0
6.657271e-39
2.707028e-41
1.684843e-05
0
3.40709e-05
0
3.678794e-13
1.308087e-13
3.864414e-14
0
4.960094e-09
0
3.347794e-27
0
8.135664e-22
0
0
1.961818e-44
0.02298048
0.0376926
8.407791e-45
1.401298e-45
0
5.242346e-11
2.286068e-36
0
0
0
2.111037e-13
4.711009e-13
1.683457e-13
0.006889452
5.309053e-34
0
0.2295076
0.1949037
1.783451e-13
0.0007109526
6.711297e-22
0
1.74247e-12
0
0
5.938262e-15
3.884301e-40
1.076008e-27
4.564353e-06
0
0
7.146622e-44
4.368771e-38
1.3667e-39
3.389762e-36
0
4.32721e-42
1.415311e-43
1.844824e-10
0
0
0
6.989457e-20
0
0
0
8.026217e-41
1.079e-43
2.061978e-30
6.967337e-30
0.02330452
0.05930531
0
0
0
0.0533936
0.07705851
1.525611e-22
1.596039e-25
0
7.163736e-31
0
0.01718705
0
1.837186e-40
0
4.377942e-36
1.823681e-10
0
0
1.301507e-17
5.605194e-45
2.246852e-06
0
0
0
6.494416e-07
0
0
2.868083e-30
1.454244e-30
1.401298e-45
3.570643e-07
0
0
8.48276e-05
1.558452e-16
3.35226e-20
9.316734e-10
0
1.070953e-09
2.182812e-12
0
6.231014e-41
9.179346e-41
3.305158e-29
9.61905e-25
2.645196e-08
2.880484e-39
0
1.397422e-13
0
0
0
7.875374e-14
0
0
4.583332e-33
6.814633e-08
0
1.825e-05
0
0
4.030975e-40
0.05847642
0
1.289719e-25
6.586103e-44
1.125199e-12
0
0
0
0
0
2.795089e-08
2.083304e-14
8.084111e-15
5.45359e-20
4.270848e-26
0
5.278475e-32
0
9.88085e-24
0
2.200131e-38
0
0
0
1.261169e-44
1.300044e-24
0
0
5.605194e-45
1.027836e-23
0
0
0
0
6.922015e-12
0.0004731372
4.201093e-30
0
0
2.087676e-10
0
0.0001265442
6.016507e-14
0
0
7.188188e-11
0
1.686063e-09
0
0
0.1603032
0
0
7.552999e-43
7.436729e-16
0.001725075
6.417272e-06
0
0
1.886438e-26
1.255985e-12
0
0
1.107667e-28
0
1.925155e-29
3.945771e-35
0
0
0
4.91423e-17
0.0003550624
2.5896e-42
1.136764e-21
8.947337e-07
0
0
1.033887e-05
5.011176e-29
2.857074e-14
0
0
0.001259168
0
0
6.991498e-05
4.508414e-08
3.138169e-09
0
3.360624e-32
6.525058e-18
2.62734e-08
1.099023e-13
1.157313e-27
0
0
2.382207e-44
2.476113e-17
0
0
0
0.0001124603
3.719283e-22
0.001253118
4.397265e-18
3.379932e-14
0
4.539553e-21
2.098923e-22
0
0
3.503622e-09
7.01937e-13
1.007556e-25
6.154914e-35
8.188759e-14
0
0
5.027094e-20
0
0
0
0
1.090335e-20
0.02213798
9.346661e-43
1.228939e-42
0.0009632253
8.911824e-28
0.02607998
1.443691e-37
7.919011e-37
3.893288e-38
3.215177e-27
1.915599e-27
3.289415e-21
3.791521e-40
3.19386e-19
0
0
2.484186e-13
0
0
2.377473e-28
3.114952e-20
1.929588e-42
2.848024e-11
8.884497e-06
0
0
0
0
0
0
0
0
0
4.504827e-13
0.01197509
0
0
1.740199e-10
0
0
0
9.205496e-28
5.394999e-43
0
0
2.866119e-24
6.402613e-25
7.38157e-09
9.587537e-22
5.141847e-23
7.40296e-13
0
4.203895e-45
5.36719e-09
0
1.365269e-10
0
2.944467e-11
0
3.242117e-20
0
0.0002932389
0.0012223
6.884164e-29
0
6.617913e-30
0
8.879483e-24
4.694169e-31
2.830623e-43
2.470489e-42
1.369669e-08
6.495632e-20
1.393711e-20
1.863843e-16
6.225811e-20
0
3.205537e-15
0
0
5.117653e-13
8.471782e-39
4.759129e-36
0
0
0.03499111
3.700383e-26
0
1.452419e-06
0.001095813
0
0
0
0
4.446341e-33
0.05739691
5.563679e-13
0
0.1467944
2.197238e-09
0
1.132049e-06
0
0
0
2.207978e-31
2.855134e-19
4.871041e-22
0
0
0
3.662114e-09
0
0
1.411813e-08
0
0
1.401298e-45
0
3.6014e-08
4.954887e-08
0
1.886868e-08
0
2.55891e-24
0
1.739258e-06
8.479661e-29
0
0
0.1131656
6.766426e-37
1.050092e-31
5.388121e-08
0
4.774609e-13
2.309916e-12
5.932435e-10
0.002636288
0.02095929
1.646993e-18
1.913513e-16
9.348079e-16
4.21757e-10
4.740167e-35
3.356143e-34
1.148672e-40
1.375094e-41
0
0.002486029
1.38876e-39
0.06113394
0
1.602089e-39
4.417004e-21
0
0
1.547813e-22
0
3.163645e-38
5.524458e-28
8.283806e-29
1.425345e-40
0
1.727085e-17
0
0
0
1.823132e-15
0.01756672
9.812095e-14
1.046329e-22
0
0
0
0
0
2.455778e-19
4.909547e-08
0
0
5.934006e-30
0
0
5.718257e-26
0
0
0
2.286038e-10
2.339105e-24
2.911479e-08
0
1.280974e-25
0
0
0
1.788587e-26
0
0
0.0379534
1.860331e-08
0
0
1.443374e-30
6.041592e-21
0
0
0
2.851109e-34
0
0
0
8.949589e-34
2.906581e-29
0
1.773183e-17
0
0
0
0
0
4.325193e-35
9.843769e-19
0
1.439725e-36
4.852628e-07
0
2.578138e-13
0.0002136698
1.071604e-10
2.093794e-13
3.337402e-05
8.237103e-36
4.358463e-33
1.047958e-33
1.57547e-12
0
0
2.758991e-12
0
0
2.431815e-34
4.76562e-09
7.115632e-27
1.415086e-26
6.367881e-19
0
0
7.364508e-34
6.376289e-17
0
1.07181e-22
0
0
3.821913e-18
9.920509e-18
0
0.001891026
1.189165e-05
2.477614e-19
1.165151e-22
0
0
1.970455e-23
0
0
0
0
0
6.034271e-41
0
8.225418e-27
0
0
0
0
1.918175e-17
5.566535e-11
6.840004e-31
5.977391e-30
3.121707e-16
7.408559e-23
5.265549e-22
2.354929e-23
0
5.795712e-18
7.748674e-07
1.452517e-06
0
7.515831e-21
0
0
1.852786e-34
8.049768e-11
2.04532e-19
0.001344253
1.221099e-21
1.556007e-28
0
1.151034e-22
0
0
0.09187197
3.547559e-21
2.034423e-10
0
0.1248096
0
5.262927e-35
0
0
0
1.739011e-42
5.707464e-27
1.246797e-17
3.852591e-18
1.441833e-08
0
9.687955e-08
0
0
0.007870215
7.937417e-08
1.716101e-07
0
6.739828e-08
2.937311e-12
6.226387e-14
0
0
0
4.420843e-06
3.96556e-39
1.401298e-45
3.668706e-21
2.744822e-21
0
9.787028e-07
5.50271e-07
1.401298e-45
7.816882e-26
6.207656e-21
7.77934e-22
0
0
0
0.3610237
0
3.257285e-06
0
0
2.090723e-08
2.289002e-08
0
0
0
8.015427e-43
5.113317e-23
0
0
0
0
2.656425e-22
0
7.148161e-09
0
1.492708e-09
0
3.665534e-05
1.401298e-45
1.406711e-29
2.652805e-34
3.068844e-43
2.078537e-32
6.45813e-27
1.207516e-27
1.091303e-38
0.0008672639
0
2.519076e-23
9.062568e-26
0.003284971
2.161225e-12
0
2.525868e-36
8.871276e-14
3.753009e-23
1.859156e-13
1.737288e-23
0
0
1.786862e-07
0
0
4.697321e-34
0
0
0
8.182875e-31
0
0
1.463693e-20
2.802597e-45
2.085519e-30
0
0
0
1.81951e-05
1.535536e-32
2.573616e-12
0
0
1.547802e-31
1.00183e-11
0
0
1.901389e-20
0
3.159847e-24
0
0
0
3.215081e-24
0
0
7.420184e-12
0
1.652497e-13
4.560283e-21
0
0
0
1.644344e-22
0
0
0
4.782756e-22
0
0
0
5.616404e-42
0
0
1.777449e-31
0
0
0
3.341865e-28
0
0
0.04108422
0.0003053689
0
3.637579e-22
0
7.20812e-20
0
5.791567e-42
1.488495e-16
1.826053e-11
4.055009e-10
1.718371e-22
5.845707e-22
7.928123e-33
0
6.251114e-23
0
4.657789e-20
2.554874e-33
3.245743e-18
0
0
6.774493e-34
3.387564e-18
0
0
2.95285e-30
7.207846e-13
3.394046e-08
0
2.115451e-08
1.054663e-21
1.401298e-45
1.142037e-08
3.968323e-11
2.11583e-13
1.17968e-27
5.942536e-28
0.000795408
0.001365848
1.935579e-22
1.820771e-17
0
0.1448053
7.707142e-44
1.854889e-18
1.795296e-06
1.729404e-09
4.592934e-10
3.390245e-13
1.198235e-17
0
1.131506e-40
0
6.971788e-24
0
0
0
1.407599e-21
1.059498e-34
4.936303e-12
7.740827e-20
1.208378e-13
0
1.455614e-28
9.928924e-19
2.552038e-17
1.817484e-42
1.148317e-11
1.248181e-33
0
1.339206e-38
4.061406e-08
0
0.01123885
1.495483e-34
0
4.760194e-18
0
0.00104177
2.386411e-42
0
6.485772e-08
0
1.723125e-11
0
7.999959e-28
0
3.643376e-44
2.354181e-43
5.907082e-36
0.001702491
8.064356e-34
0
0
0.005350109
2.632199e-41
5.314719e-08
2.802597e-45
0.00912396
2.190351e-37
4.924446e-09
0
0
5.413529e-17
0
3.290682e-25
0
0
1.019564e-22
1.829072e-22
8.461677e-23
2.802597e-45
1.805853e-14
0
0
0.0005816995
4.13197e-14
3.186316e-34
0
0
0
1.783713e-11
2.885684e-14
5.596785e-22
1.510221e-40
1.252827e-39
7.196187e-21
0
4.85063e-38
0
0.8256636
0.8052905
2.366151e-23
0
0
0
2.360941e-22
0
0
0
0
0
2.802597e-45
0
3.222986e-44
0
2.777056e-16
0
0
1.322164e-09
0
0
1.797882e-28
0.00209668
0
0
0
1.867678e-20
0
0
3.653037e-19
0
0
2.818882e-09
1.279894e-05
7.534255e-13
2.647308e-05
4.063766e-44
5.154038e-19
7.322903e-20
1.866581e-33
0
0
0
4.397306e-35
0
0
2.569371e-36
0
0
0
4.56176e-26
6.215277e-40
0
2.777534e-17
0
0
0
1.162398e-17
8.728177e-07
0
1.92121e-09
0
1.636613e-22
1.26651e-07
1.499389e-42
1.312311e-13
1.898046e-17
0
0
8.80943e-21
4.170177e-12
2.801263e-11
0.08896296
5.464115e-17
0
0
0
4.384024e-26
0
4.032623e-36
0
1.893726e-07
0
0
1.961818e-44
3.689903e-07
0
2.104217e-22
6.275417e-31
1.910707e-16
2.361382e-23
0
0
0
0
5.130084e-40
0
1.011872e-22
0
1.380829e-09
0
2.628202e-30
0
0
1.274969e-26
0
0
0
4.912453e-08
0
0
3.458354e-25
0
0
0
0
2.052153e-08
6.977061e-30
1.669022e-39
1.401298e-45
0
2.56699e-28
0
3.619598e-19
0
0
4.314374e-26
1.175114e-26
0
0
0
2.904196e-18
0
0
0
1.550411e-27
0
0
0
9.110067e-08
1.332796e-05
1.550931e-34
0.0123347
5.885206e-14
0
0.0003760885
0
0.0004823296
3.695376e-16
4.498931e-12
0
1.656071e-27
0
2.518974e-41
0
9.799707e-19
3.62927e-38
0
2.030481e-42
2.046848e-08
3.751406e-24
0
0
0
0
2.651964e-24
0
0
5.605194e-45
3.307594e-38
5.60852e-18
6.528361e-27
2.234841e-12
4.41944e-15
3.679427e-38
0
8.089304e-15
0
0
0
0
0
0
0
4.962835e-09
0
5.00308e-18
1.482158e-18
0
0
7.989297e-20
5.825995e-23
1.399557e-39
0
6.305343e-38
3.16999e-09
0
0
0
1.124022e-06
1.280025e-22
4.619992e-38
0
6.328768e-19
0
0
0
1.047456e-14
9.433302e-05
0
0
0.001188103
0
2.094666e-06
0
0
0
0
6.820911e-23
0
2.811039e-24
0
0
0.001314352
3.61535e-42
0
0
4.052086e-23
1.650628e-22
0
2.308201e-10
7.919535e-27
1.365406e-06
1.256536e-15
2.394911e-21
0
1.099851e-11
0
0
0
3.969162e-11
4.440855e-41
8.325749e-25
1.903906e-13
9.989823e-39
1.455474e-09
0
0
9.022812e-37
1.018522e-25
0
0
0
4.386064e-43
3.860206e-18
0
6.720533e-25
0
0
0
4.087684e-17
0
9.516402e-07
0
0.0004475037
0.03014367
0.0193621
1.14845e-32
6.42584e-37
9.26456e-23
3.272033e-19
9.145025e-22
0
4.784052e-18
6.271661e-29
1.839455e-16
3.453487e-36
0
4.203895e-45
1.206363e-19
0
0
1.454165e-29
0
0
2.254685e-26
0.001690369
1.475813e-10
0.03765136
0.05686565
0
0
0.0001173086
1.101502e-18
0
0
1.566543e-31
0
1.401298e-44
9.516301e-07
0
0
0
0
3.471741e-25
0
1.679735e-25
0.0001050593
1.566306e-31
5.820983e-18
0
0
3.611885e-06
1.065328e-06
0
0
8.567524e-32
0
0
1.185939e-25
0
0
7.689775e-26
0
0
0
0
7.966655e-18
0
0
2.808201e-17
0
0
0
0
0
0.0005770847
0
0
0
0.001588056
2.227248e-33
3.255312e-12
0
8.378169e-23
1.492774e-39
0
0
5.076612e-07
0
0
0
0
0
1.447643e-15
0
8.584715e-33
6.0406e-27
4.175903e-24
5.02455e-39
4.369786e-05
0.0187366
5.978556e-08
6.031574e-06
1.382074e-16
0
0
0
1.147692e-09
0
0
2.505136e-32
3.508482e-09
0
0
9.332082e-33
0
0.006023466
0
0
5.492035e-11
0
8.944388e-26
4.773187e-24
2.66633e-23
0
3.919215e-07
5.723852e-28
1.794556e-11
0
0
1.151013e-34
4.527527e-22
3.325402e-06
0
8.504018e-20
0.0008299358
0
0
0
0
1.507603e-11
0
0
0
0
0
0
0
5.872765e-33
5.001234e-42
7.629409e-27
0.006899105
4.864584e-36
6.269963e-37
1.556137e-24
1.518749e-07
1.261169e-44
0
2.608899e-20
1.082607e-33
0
2.406332e-17
0
3.022477e-29
0
0
0
0
0
0
9.134148e-15
1.8343e-42
3.013251e-11
0
6.673325e-27
5.499907e-27
0
3.94419e-36
2.376328e-39
0
1.208004e-22
0
1.87861e-05
5.665574e-07
1.989632e-25
2.33152e-07
4.289625e-28
0
0
1.197677e-07
1.444768e-17
0
0
0
0
0
5.350432e-30
0
1.681098e-18
0
0
2.357265e-26
3.789954e-29
0
6.822696e-18
2.875073e-18
3.897987e-27
0
6.488217e-14
4.163684e-17
0
5.987186e-29
0
9.66422e-29
0
8.26905e-38
9.342841e-09
6.224011e-11
4.203895e-44
2.048234e-22
2.556827e-18
4.32282e-25
0
6.79878e-15
5.224506e-26
6.215296e-27
0
1.234556e-19
1.831959e-21
5.262372e-37
1.046713e-30
1.648893e-14
3.769493e-14
0
0.0006814432
1.407171e-28
0.0004925111
0
3.742124e-30
4.597444e-21
0
0
1.177616e-38
5.707909e-40
9.332172e-21
0
0
3.29115e-19
0
1.095421e-16
0.2016231
0.2945588
0.00899841
1.033942e-18
0
6.181468e-10
0
0
0
1.401298e-45
6.740246e-43
9.416726e-43
5.80913e-10
0
0
0
4.484155e-44
0
0
0
0
1.401298e-45
7.603305e-41
1.499312e-14
0
1.082081e-37
1.753735e-16
0
1.560608e-16
2.974351e-06
6.376572e-05
2.257477e-24
1.987042e-30
1.78074e-09
0.005776974
0
8.860923e-23
0
1.280322e-20
0
0
4.770639e-06
9.399936e-05
0
7.392031e-12
0
0
1.101191e-39
8.742348e-38
0
1.606213e-24
0
0
2.298129e-43
2.101948e-44
0
5.487235e-06
1.280766e-13
0
0.03501495
6.727417e-20
6.37488e-14
0.2902218
2.48068e-19
1.723523e-34
0
0
1.775225e-25
3.814657e-40
0
1.195608e-23
1.327107e-30
0
2.247066e-40
2.330752e-40
0
6.699333e-26
1.137723e-26
0.01645565
3.135197e-07
0
3.991473e-20
3.616447e-19
0
1.811724e-16
5.076487e-09
1.432173e-08
2.504848e-15
1.612895e-42
2.045636e-34
0
4.910248e-20
1.722193e-15
0
0
0
0.04635439
1.545013e-11
8.448104e-12
9.754297e-27
0.0001949297
8.259142e-06
1.114381e-27
6.902215e-09
0
0
0.001129355
0
5.965527e-39
0.0007707485
0
0.001496916
0
0
5.068824e-16
0
0
1.064987e-42
5.47731e-20
3.179725e-06
0
0
0
3.281306e-25
4.815951e-31
0
2.70871e-42
0
2.522236e-14
2.162211e-15
0
0
1.718424e-09
0
0
2.295216e-37
6.070447e-08
3.511732e-14
2.541417e-23
4.498168e-43
4.988623e-43
7.191097e-13
1.035848e-38
3.416283e-25
0
0
0
4.41515e-25
0
0
4.462609e-12
0
6.054217e-14
0
0
0
0
0
1.806636e-35
9.230636e-21
1.941421e-08
0
0
5.484704e-14
0
1.660912e-13
0
1.000317e-26
8.333959e-26
0.8208014
2.760361e-33
5.697689e-20
1.401298e-45
6.957307e-41
0
0
0
0
0
0
0
0
2.940523e-06
5.641748e-06
3.433181e-43
3.363116e-44
4.513422e-12
3.880112e-37
0
1.037271e-09
0
1.923211e-08
0
0
1.580496e-08
2.341136e-32
2.27168e-21
9.336895e-18
4.138034e-42
6.041145e-10
0
0
2.640926e-12
0
0
2.579838e-37
3.630035e-23
4.346123e-29
0
1.551924e-13
0
0
0
4.670136e-34
0
0
9.999017e-22
0
4.314262e-05
0.0008074256
2.269838e-08
1.32709e-05
5.087545e-11
2.500213e-35
1.350227e-36
8.210845e-31
0
2.63524e-32
2.575443e-06
0
0
0
4.223991e-11
0
7.070788e-10
3.66355e-25
2.03048e-36
2.205968e-07
0
3.179549e-26
5.971575e-28
0
8.947495e-38
0
0
2.99768e-37
0
0
0
0.4605064
1.219247e-16
3.381846e-25
0
2.376316e-36
0
2.30818e-10
0.02690035
0
3.374958e-35
0
0
1.097217e-41
1.055429e-25
1.81967e-40
4.430716e-26
0
0
4.508604e-27
0
0
0
7.283398e-27
0
0
1.218649e-09
0
0
3.422523e-09
0
0
7.199872e-41
5.825856e-40
4.857592e-33
0
3.013278e-08
0
4.726553e-29
0
0
0
0
2.590277e-12
0
6.879068e-37
1.284212e-36
0
1.841044e-27
0
0
2.333737e-37
2.058976e-38
9.098076e-07
0
0
4.27813e-11
0
0
2.052043e-28
0
3.176882e-18
9.630947e-06
0
2.924495e-16
1.160262e-13
4.863637e-14
3.550432e-16
1.936788e-20
0
0
0
0
4.286966e-17
0
0
0
0.0001846278
0
0
1.036961e-43
8.16957e-43
0.002786266
0
0
0
5.240053e-12
6.399425e-21
4.359187e-22
1.121039e-44
2.802597e-45
2.23019e-07
7.522855e-35
1.587275e-10
0.0003791951
0
0
0
2.438442e-37
0
1.102512e-26
1.679818e-16
3.054094e-13
6.339017e-05
3.705311e-05
0
0
0
1.593323e-06
3.30286e-42
3.267578e-37
3.810641e-05
0
9.017614e-32
1.047629e-06
0
0
6.119015e-05
1.786682e-09
0
0
0
2.175251e-17
5.036962e-06
0
0
3.198526e-11
0
0
8.600651e-40
0
0
0
5.080437e-06
0
0
0
6.205144e-34
0
0.000738796
5.593513e-07
0.04252822
8.64493e-07
2.796379e-16
0.05463615
2.164363e-28
1.095526e-08
3.419176e-08
0
9.431981e-33
5.846916e-16
3.07571e-32
1.357732e-12
1.015941e-42
0.05555993
0
0
1.581757e-30
8.353668e-18
0
0
9.860507e-25
3.466184e-25
3.857689e-10
0
7.61249e-05
1.368765e-30
0
0.0002439459
0
1.357157e-15
5.599011e-22
3.805519e-34
0.02042042
2.008103e-23
0
0
1.162789e-20
4.972403e-22
0
0
0
0
2.74952e-29
0
0
0
8.36884e-15
6.354847e-28
0
0
0
3.358155e-06
2.096737e-11
0
4.81548e-19
0
0
0
4.30268e-28
0
0
2.780737e-14
0
1.151124e-23
0
0
0
0
0
0
0
5.147948e-35
0
1.464804e-27
0
0
2.586808e-21
0
0
8.026039e-29
0
0
0
0
5.27834e-21
0
0
5.521116e-43
2.316428e-17
0
0
3.745655e-31
0
1.215079e-22
0
0
5.392585e-13
0
0
0
0
0
0
5.136497e-20
0
0
2.419911e-20
2.063288e-17
0
4.50949e-14
2.376334e-31
6.82582e-14
0
0
0
1.732906e-14
0
0
0
0.1139588
2.853317e-09
0
3.152922e-43
1.471371e-10
1.55111e-15
0
1.337988e-40
0
0
0
4.304793e-16
1.765581e-16
4.063766e-43
8.446044e-07
2.133647e-34
0
0
4.351231e-34
0
5.294875e-08
0
5.094248e-30
0
0
0
2.175645e-06
0
0
2.004849e-36
0.0002311181
0
1.921319e-07
1.956105e-07
3.341345e-34
2.033488e-13
0
0
9.646371e-14
0
0
1.630126e-35
9.609946e-34
1.008551e-35
1.711018e-38
1.333913e-39
9.397579e-10
3.67809e-36
5.360902e-34