# vtk DataFile Version 3.0 
2D Unstructured Grid
ASCII
DATASET UNSTRUCTURED_GRID
POINTS 8596 float 
-4 -4 0.
-4 4 0.
4 -4 0.
4 4 0.
-4 3.9 0.
-4 3.8 0.
-4 3.7 0.
-4 3.6 0.
-4 3.5 0.
-4 3.4 0.
-4 3.3 0.
-4 3.2 0.
-4 3.1 0.
-4 3 0.
-4 2.9 0.
-4 2.8 0.
-4 2.7 0.
-4 2.6 0.
-4 2.5 0.
-4 2.4 0.
-4 2.3 0.
-4 2.2 0.
-4 2.1 0.
-4 2 0.
-4 1.9 0.
-4 1.8 0.
-4 1.7 0.
-4 1.6 0.
-4 1.5 0.
-4 1.4 0.
-4 1.3 0.
-4 1.2 0.
-4 1.1 0.
-4 1 0.
-4 0.9 0.
-4 0.8 0.
-4 0.7 0.
-4 0.6 0.
-4 0.5 0.
-4 0.4 0.
-4 0.3 0.
-4 0.2 0.
-4 0.1 0.
-4 1.100897e-11 0.
-4 -0.1 0.
-4 -0.2 0.
-4 -0.3 0.
-4 -0.4 0.
-4 -0.5 0.
-4 -0.6 0.
-4 -0.7 0.
-4 -0.8 0.
-4 -0.9 0.
-4 -1 0.
-4 -1.1 0.
-4 -1.2 0.
-4 -1.3 0.
-4 -1.4 0.
-4 -1.5 0.
-4 -1.6 0.
-4 -1.7 0.
-4 -1.8 0.
-4 -1.9 0.
-4 -2 0.
-4 -2.1 0.
-4 -2.2 0.
-4 -2.3 0.
-4 -2.4 0.
-4 -2.5 0.
-4 -2.6 0.
-4 -2.7 0.
-4 -2.8 0.
-4 -2.9 0.
-4 -3 0.
-4 -3.1 0.
-4 -3.2 0.
-4 -3.3 0.
-4 -3.4 0.
-4 -3.5 0.
-4 -3.6 0.
-4 -3.7 0.
-4 -3.8 0.
-4 -3.9 0.
-3.9 -4 0.
-3.8 -4 0.
-3.7 -4 0.
-3.6 -4 0.
-3.5 -4 0.
-3.4 -4 0.
-3.3 -4 0.
-3.2 -4 0.
-3.1 -4 0.
-3 -4 0.
-2.9 -4 0.
-2.8 -4 0.
-2.7 -4 0.
-2.6 -4 0.
-2.5 -4 0.
-2.4 -4 0.
-2.3 -4 0.
-2.2 -4 0.
-2.1 -4 0.
-2 -4 0.
-1.9 -4 0.
-1.8 -4 0.
-1.7 -4 0.
-1.6 -4 0.
-1.5 -4 0.
-1.4 -4 0.
-1.3 -4 0.
-1.2 -4 0.
-1.1 -4 0.
-1 -4 0.
-0.9 -4 0.
-0.8 -4 0.
-0.7 -4 0.
-0.6 -4 0.
-0.5 -4 0.
-0.4 -4 0.
-0.3 -4 0.
-0.2 -4 0.
-0.1 -4 0.
-1.100897e-11 -4 0.
0.1 -4 0.
0.2 -4 0.
0.3 -4 0.
0.4 -4 0.
0.5 -4 0.
0.6 -4 0.
0.7 -4 0.
0.8 -4 0.
0.9 -4 0.
1 -4 0.
1.1 -4 0.
1.2 -4 0.
1.3 -4 0.
1.4 -4 0.
1.5 -4 0.
1.6 -4 0.
1.7 -4 0.
1.8 -4 0.
1.9 -4 0.
2 -4 0.
2.1 -4 0.
2.2 -4 0.
2.3 -4 0.
2.4 -4 0.
2.5 -4 0.
2.6 -4 0.
2.7 -4 0.
2.8 -4 0.
2.9 -4 0.
3 -4 0.
3.1 -4 0.
3.2 -4 0.
3.3 -4 0.
3.4 -4 0.
3.5 -4 0.
3.6 -4 0.
3.7 -4 0.
3.8 -4 0.
3.9 -4 0.
4 -3.9 0.
4 -3.8 0.
4 -3.7 0.
4 -3.6 0.
4 -3.5 0.
4 -3.4 0.
4 -3.3 0.
4 -3.2 0.
4 -3.1 0.
4 -3 0.
4 -2.9 0.
4 -2.8 0.
4 -2.7 0.
4 -2.6 0.
4 -2.5 0.
4 -2.4 0.
4 -2.3 0.
4 -2.2 0.
4 -2.1 0.
4 -2 0.
4 -1.9 0.
4 -1.8 0.
4 -1.7 0.
4 -1.6 0.
4 -1.5 0.
4 -1.4 0.
4 -1.3 0.
4 -1.2 0.
4 -1.1 0.
4 -1 0.
4 -0.9 0.
4 -0.8 0.
4 -0.7 0.
4 -0.6 0.
4 -0.5 0.
4 -0.4 0.
4 -0.3 0.
4 -0.2 0.
4 -0.1 0.
4 -1.100897e-11 0.
4 0.1 0.
4 0.2 0.
4 0.3 0.
4 0.4 0.
4 0.5 0.
4 0.6 0.
4 0.7 0.
4 0.8 0.
4 0.9 0.
4 1 0.
4 1.1 0.
4 1.2 0.
4 1.3 0.
4 1.4 0.
4 1.5 0.
4 1.6 0.
4 1.7 0.
4 1.8 0.
4 1.9 0.
4 2 0.
4 2.1 0.
4 2.2 0.
4 2.3 0.
4 2.4 0.
4 2.5 0.
4 2.6 0.
4 2.7 0.
4 2.8 0.
4 2.9 0.
4 3 0.
4 3.1 0.
4 3.2 0.
4 3.3 0.
4 3.4 0.
4 3.5 0.
4 3.6 0.
4 3.7 0.
4 3.8 0.
4 3.9 0.
3.9 4 0.
3.8 4 0.
3.7 4 0.
3.6 4 0.
3.5 4 0.
3.4 4 0.
3.3 4 0.
3.2 4 0.
3.1 4 0.
3 4 0.
2.9 4 0.
2.8 4 0.
2.7 4 0.
2.6 4 0.
2.5 4 0.
2.4 4 0.
2.3 4 0.
2.2 4 0.
2.1 4 0.
2 4 0.
1.9 4 0.
1.8 4 0.
1.7 4 0.
1.6 4 0.
1.5 4 0.
1.4 4 0.
1.3 4 0.
1.2 4 0.
1.1 4 0.
1 4 0.
0.9 4 0.
0.8 4 0.
0.7 4 0.
0.6 4 0.
0.5 4 0.
0.4 4 0.
0.3 4 0.
0.2 4 0.
0.1 4 0.
1.100897e-11 4 0.
-0.1 4 0.
-0.2 4 0.
-0.3 4 0.
-0.4 4 0.
-0.5 4 0.
-0.6 4 0.
-0.7 4 0.
-0.8 4 0.
-0.9 4 0.
-1 4 0.
-1.1 4 0.
-1.2 4 0.
-1.3 4 0.
-1.4 4 0.
-1.5 4 0.
-1.6 4 0.
-1.7 4 0.
-1.8 4 0.
-1.9 4 0.
-2 4 0.
-2.1 4 0.
-2.2 4 0.
-2.3 4 0.
-2.4 4 0.
-2.5 4 0.
-2.6 4 0.
-2.7 4 0.
-2.8 4 0.
-2.9 4 0.
-3 4 0.
-3.1 4 0.
-3.2 4 0.
-3.3 4 0.
-3.4 4 0.
-3.5 4 0.
-3.6 4 0.
-3.7 4 0.
-3.8 4 0.
-3.9 4 0.
0.01174228 0.002152701 0.
-1.65142 1.646822 0.
-1.657018 -1.657018 0.
1.661085 -1.651125 0.
1.655988 1.643369 0.
-2.253102 -0.003454735 0.
-0.003393343 -2.234084 0.
2.242566 1.615135e-13 0.
-0.005584773 2.238593 0.
-2.630146 2.625583 0.
-2.625583 -2.630146 0.
2.630146 -2.625583 0.
2.625583 2.630146 0.
-1.133855 -0.5266345 0.
1.123731 -0.5472426 0.
0.5211369 1.117446 0.
-1.126199 -2.774471 0.
2.761193 -1.119745 0.
1.119811 2.761184 0.
-2.76402 1.119111 0.
-2.776914 -1.114853 0.
1.114131 -2.794931 0.
2.784625 1.120616 0.
-1.117061 2.766352 0.
-1.003332 0.6495939 0.
-0.1703442 -1.096533 0.
1.324817 0.4629167 0.
-0.7198322 1.564117 0.
0.6806312 -1.582435 0.
-3.096942 0.2842854 0.
-0.2670699 -3.101605 0.
3.103746 -0.2963357 0.
0.2796838 3.099146 0.
-0.7714735 -1.796562 0.
-1.872217 0.8061594 0.
-3.125666 1.913096 0.
-1.913096 -3.125666 0.
3.125666 -1.913096 0.
1.913096 3.125666 0.
-3.127206 -1.911854 0.
1.911854 -3.127206 0.
3.127206 1.911854 0.
-1.911854 3.127206 0.
1.947653 -0.8238517 0.
0.8204237 1.945929 0.
-1.945929 -0.8204237 0.
-0.185043 0.7836328 0.
-3.196087 3.196087 0.
-3.196087 -3.196087 0.
3.196087 -3.196087 0.
3.196087 3.196087 0.
1.98658 0.9354979 0.
-3.222741 -0.4877829 0.
-0.4877829 3.222741 0.
0.4877829 -3.222741 0.
3.222741 0.4877829 0.
-1.912069 -2.361848 0.
2.378541 -1.895174 0.
1.895174 2.378541 0.
-2.374698 1.904745 0.
-1.770036 2.397251 0.
-2.397875 -1.768656 0.
1.770068 -2.397262 0.
2.399814 1.771481 0.
-1.520795 0.1028531 0.
0.3839493 -0.628551 0.
0.7119655 0.0866241 0.
-0.7040774 0.02508618 0.
-0.01024317 1.5481 0.
1.215383 1.14007 0.
-0.6826064 2.23952 0.
-1.158452 -1.231921 0.
0.6765233 -2.25282 0.
-3.335346 2.544654 0.
-2.544654 -3.335346 0.
3.335346 -2.544654 0.
2.544654 3.335346 0.
-3.335346 -2.544654 0.
2.544654 -3.335346 0.
3.335346 2.544654 0.
-2.544654 3.335346 0.
1.215069 -1.172051 0.
1.607492 -0.1120804 0.
-0.8704733 -3.362351 0.
3.350433 -0.8763784 0.
0.8763784 3.350433 0.
-3.371206 0.8619931 0.
-0.3677888 -0.5209159 0.
-3.362436 -1.334131 0.
1.309117 -3.353045 0.
3.362436 1.334131 0.
-1.335064 3.350725 0.
-0.6156894 -2.388265 0.
-1.280349 -2.150888 0.
-2.600978 -0.5213658 0.
2.603078 0.5057543 0.
-2.442951 0.5941997 0.
2.543962 -0.5398798 0.
0.5420924 2.539516 0.
-1.196026 1.229143 0.
-2.218894 1.333297 0.
0.3452108 0.5347207 0.
1.263303 -2.095646 0.
0.125305 -1.648274 0.
-1.264218 2.095051 0.
2.219139 -1.33785 0.
1.349169 2.219607 0.
-1.393036 -3.420991 0.
3.428686 -1.427488 0.
1.427488 3.428686 0.
-3.428686 1.427488 0.
-0.3270746 2.686954 0.
0.3425975 -2.679684 0.
1.869393 0.3945473 0.
-0.6714428 -0.9545304 0.
-2.082738 -1.339058 0.
0.3700162 -1.163593 0.
0.8569802 0.6946048 0.
-0.6567919 1.054031 0.
-1.616016 -0.4083129 0.
-0.05344371 3.492087 0.
-3.484441 -0.05678881 0.
0.05341004 -3.492639 0.
3.484441 0.05678881 0.
0.7941368 -0.8968117 0.
-2.73069 -0.03513518 0.
2.72962 0.03115688 0.
-1.605178 -2.746964 0.
2.7518 -1.584814 0.
1.584814 2.7518 0.
-2.749601 1.588273 0.
-2.699574 -2.145615 0.
2.145615 -2.699574 0.
2.699574 2.145615 0.
-2.145615 2.699574 0.
0.4725133 1.597291 0.
2.080997 1.405435 0.
-0.3401721 1.902792 0.
1.167143 1.613914 0.
-0.8768449 3.518812 0.
-3.518405 -0.8670666 0.
0.8768492 -3.51851 0.
3.518738 0.8675702 0.
-1.624174 -1.171719 0.
-0.3392027 0.3312521 0.
-0.3518154 -1.546098 0.
-3.52946 -3.52946 0.
3.52946 -3.52946 0.
3.52946 3.52946 0.
-3.52946 3.52946 0.
-1.460802 0.5766509 0.
-1.920324 0.3514804 0.
-3.537369 0.4344124 0.
0.437505 3.534343 0.
-0.4336447 -3.540673 0.
3.534343 -0.437505 0.
-2.739757 2.165753 0.
-2.165753 -2.739757 0.
2.739757 -2.165753 0.
2.165753 2.739757 0.
-3.540063 2.133132 0.
-2.133132 -3.540063 0.
3.540063 -2.133132 0.
2.133132 3.540063 0.
-2.12923 3.536394 0.
-3.536394 -2.12923 0.
2.12923 -3.536394 0.
3.536394 2.12923 0.
1.167907 -1.64806 0.
1.684595 -1.182336 0.
-0.6720564 -2.853499 0.
-0.231563 -2.655797 0.
-1.574563 2.814393 0.
-2.814393 -1.574563 0.
1.574563 -2.814393 0.
2.814393 1.574563 0.
1.151285 -0.08680696 0.
-1.670411 1.207148 0.
1.556954 -0.5749841 0.
-2.899018 0.6795151 0.
-1.215536 -1.672898 0.
1.985279 -0.3617194 0.
0.115021 2.6806 0.
-0.3764146 -1.997574 0.
-3.555414 2.9323 0.
-2.9323 -3.555414 0.
3.555414 -2.9323 0.
2.9323 3.555414 0.
-3.555414 -2.9323 0.
2.9323 -3.555414 0.
3.555414 2.9323 0.
-2.9323 3.555414 0.
0.09169132 1.118326 0.
-1.133945 1.670373 0.
1.547427 0.8429948 0.
-2.162854 -0.4350174 0.
-2.375209 -0.90154 0.
0.3761987 2.042578 0.
2.958732 -0.7122856 0.
0.6965184 2.955187 0.
-2.001218 -1.935376 0.
1.938214 -1.993112 0.
1.982077 1.925059 0.
-1.931358 1.993997 0.
-1.125887 -0.09649962 0.
2.361964 -0.9355606 0.
0.9102027 2.364656 0.
0.3839154 -0.1941313 0.
-1.700314 3.571393 0.
-3.571393 -1.700314 0.
1.700314 -3.571393 0.
3.571393 1.700314 0.
-2.815354 -3.00836 0.
3.00836 -2.815354 0.
2.815354 3.00836 0.
-3.00836 2.815354 0.
2.409022 0.8943094 0.
-1.458642 -0.8064671 0.
0.7104411 -2.872132 0.
-0.7113316 2.876668 0.
0.4402812 -1.910843 0.
-2.33683 2.330016 0.
-2.330016 -2.33683 0.
2.33683 -2.330016 0.
2.330016 2.33683 0.
-0.003904235 -0.7044803 0.
1.688878 1.24366 0.
-0.2998394 1.260437 0.
3.10583 0.8755277 0.
-3.10583 -0.8755277 0.
-0.7637208 -1.365719 0.
0.7395812 -0.3974528 0.
-0.1309505 3.03758 0.
0.8364074 1.405771 0.
0.1272454 -3.038385 0.
-0.5924389 0.6437155 0.
-0.7502007 -0.3679155 0.
-2.391848 0.9816587 0.
1.005833 -3.135435 0.
2.469406 1.365112 0.
-1.858967 -0.08941907 0.
-1.007361 3.132867 0.
1.372733 -2.466153 0.
-1.372831 2.46627 0.
-1.155517 0.290135 0.
-2.472269 -1.378681 0.
-3.612073 -0.4279665 0.
0.4279713 -3.611875 0.
3.624669 0.4160622 0.
-0.4280823 3.61182 0.
0.8860282 -1.929399 0.
-2.95995 -2.432796 0.
2.432796 -2.95995 0.
2.95995 2.432796 0.
-2.432796 2.95995 0.
3.07453 0.1333541 0.
-3.07453 -0.1333541 0.
2.206814 0.5638378 0.
-1.377222 -3.048127 0.
3.052627 -1.372876 0.
-3.052627 1.372876 0.
1.372876 3.052627 0.
-0.3563781 -0.1271899 0.
-1.662687 -2.086089 0.
-3.632486 1.76313 0.
1.76313 3.632486 0.
-1.76313 -3.632486 0.
3.632486 -1.76313 0.
-0.9848948 -2.428976 0.
0.9674575 0.3372908 0.
-2.733716 0.3304778 0.
-0.8485314 1.909684 0.
0.3279046 0.1682257 0.
0.08811336 -0.3777752 0.
1.120993 3.632225 0.
-1.124895 -3.633465 0.
3.632225 -1.120993 0.
-3.632225 1.120993 0.
-1.009601 2.423956 0.
1.026269 -2.421216 0.
0.01924733 0.3809628 0.
-1.425682 0.9517173 0.
1.329692 -0.834845 0.
-2.968536 2.439983 0.
-2.437647 -2.99902 0.
2.99902 -2.437647 0.
2.437647 2.99902 0.
2.013424 -1.645758 0.
1.622439 2.028102 0.
-3.141798 -2.852297 0.
2.852297 -3.141798 0.
3.141798 2.852297 0.
-2.852297 3.141798 0.
-2.020016 1.660385 0.
-1.0144 -0.8823555 0.
0.865785 -1.26148 0.
-1.350932 -2.500201 0.
-0.8136481 0.3733461 0.
0.04607216 1.889005 0.
-0.3381859 2.336494 0.
[...]
CELL_DATA 16870
SCALARS sol float 1
LOOKUP_TABLE default
4.247842e-13
5.769865e-17
3.324582e-13
3.616532e-17
0.006978111
6.146713e-09
8.322803e-09
0.008060744
0.00961286
1.441897e-10
2.015316e-17
3.430771e-23
7.048504e-05
4.087654e-06
6.009922e-09
1.463776e-10
8.435543e-05
3.032525e-17
6.076341e-23
0.0195158
0.02245779
7.621018e-12
3.250981e-12
0.007589353
5.358922e-12
2.08006e-12
3.033745e-06
5.937371e-09
0.02675777
0.01671655
0.0349475
0.03106496
9.120041e-06
0.0009111965
1.982264e-10
2.656352e-10
0.01687359
2.917789e-12
4.353364e-16
2.006968e-10
0.003745763
4.091916e-13
2.405348e-20
0.002638325
1.628036e-10
0.003078504
2.496918e-13
1.281915e-20
0.002202233
0.0007716115
0.0273957
1.695709e-07
3.870422e-06
2.824623e-06
3.511018e-12
3.124519e-13
0.01904596
3.985285e-12
4.945132e-16
0.5355465
0.0001707591
1.257469e-14
3.169311e-12
1.964739e-13
1.08628e-05
0.5234007
2.020483e-05
2.517486e-05
0.006000135
0.006037806
0.006393438
0.004857145
3.249898e-11
1.194447e-10
0.1032117
0.09959906
0.02296903
0.02356567
0.002039369
1.907656e-14
1.140289e-19
1.085782e-08
4.750236e-09
1.517462e-07
0.001175237
5.450056e-15
7.818565e-19
2.364332e-10
1.647155e-10
2.396184e-07
1.588918e-05
0.1089912
0.0001366398
2.128203e-09
4.402335e-09
0.01191257
3.334033e-12
1.222011e-18
4.173833e-09
3.192312e-09
0.009793142
1.970943e-12
6.664303e-19
2.265104e-11
9.0977e-11
0.3203085
2.792998e-09
3.251941e-05
0.05474071
4.356018e-10
0.04390512
6.476794e-11
9.822422e-17
7.034469e-08
0.3446454
0.0542231
0.001445577
1.682164e-14
0.0002248895
5.885542e-15
1.738008e-12
0.0009124237
3.061019e-13
0.002005423
2.059716e-14
7.757453e-20
8.497707e-09
0.0003790924
2.193326e-14
0.000289622
9.302922e-15
0.00116943
3.22808e-09
0.0004890659
0.02472811
7.612632e-11
6.449777e-10
0.07647804
1.851452e-10
2.630138e-15
1.062966e-06
1.09772e-06
0.007723997
8.699865e-07
0.006232108
0.004551172
8.79554e-08
1.799266e-14
7.748728e-11
0.0649519
1.19969e-10
1.843322e-15
1.053367e-06
0.05103657
2.982573e-10
4.291097e-10
0.01079901
8.017137e-05
1.815034e-09
1.187753e-09
0.2682778
0.0009553963
0.0002061662
6.914906e-15
3.202756e-14
2.645585e-12
0.000827815
3.441459e-13
0.01403991
0.0001712964
0.0001741937
0.0001033979
0.001609038
3.527205e-14
4.196867e-21
2.035537e-10
0.6389796
0.9240784
2.782012e-09
4.480152e-06
0.0003092754
5.622076e-16
2.982229e-22
1.745543e-10
0.0002284227
3.059481e-16
1.663164e-22
1.073091e-10
2.050698e-06
0.01131511
1.150209e-09
0.006286749
8.561125e-13
1.615554e-19
8.560981e-08
2.535612e-16
0.006059305
2.929463e-13
5.210519e-06
0.1939292
1.916104e-08
7.181614e-15
6.963381e-08
0.01274771
5.889427e-06
0.0001423429
4.780981e-14
3.540889e-06
4.358907e-06
0.003044552
4.536361e-14
2.840792e-18
0.002712673
3.414654e-14
1.663807e-18
1.923509e-07
1.295519e-07
0.001511796
0.001353075
0.01017396
0.1596641
2.02621e-09
1.923865e-14
1.684469e-06
0.02067954
3.359857e-06
0.1659399
2.205321e-09
4.828718e-14
2.286347e-06
4.801886e-06
7.340974e-14
0.00024222
2.599719e-12
1.12758e-07
5.262096e-08
0.0002213876
1.581879e-16
4.03004e-20
1.077525e-07
6.009222e-06
0.1721019
3.295566e-12
8.511277e-12
9.842589e-12
9.343343e-12
1.45355e-11
0.01256734
4.848264e-07
0.002692564
0.04556957
6.31487e-11
1.371718e-16
9.233142e-08
0.4877594
0.1976988
6.744437e-10
3.75071e-06
0.005757889
2.348953e-13
1.641197e-16
0.0001073898
0.0001303276
0.001039142
0.06203501
1.213059e-16
0.0007706651
1.183403e-09
0.2219905
3.118101e-08
1.260488e-14
8.985245e-08
0.0002747545
2.357109e-08
0.2564054
2.47513e-14
1.365099e-14
0.2179195
1.629668e-09
6.64359e-06
8.642431e-06
0.0004732904
0.7933549
3.844839e-09
0.01151966
1.961941e-15
2.194871e-07
0.0001240977
5.858365e-17
1.216128e-22
2.61995e-10
2.131211e-06
7.621659e-06
0.0008499838
0.05960933
0.06262822
0.0001205081
0.2931711
0.00457966
0.004091087
6.756819e-08
9.841759e-08
0.01225387
0.0002514146
0.0002589022
0.00846504
9.108119e-06
8.971644e-11
0.06258765
5.121951e-09
0.002415622
0.00233949
0.1325827
3.891715e-07
1.657762e-07
0.005680136
0.003002743
0.3418937
0.0002780273
0.000262592
0.03884089
3.487358e-11
2.034646e-14
2.306169e-05
2.052853e-06
2.024946e-12
3.669451e-07
5.042086e-17
0.01124623
2.584428e-09
4.742147e-17
0.05624567
1.044072e-09
5.460714e-05
5.644779e-12
1.273207e-12
9.622882e-11
8.735818e-13
8.850934e-11
1.279866e-11
9.233952e-12
1.303884e-07
9.812145e-05
0.01509275
0.0007916684
0.6416514
0.6844552
0.2360158
1.31668e-10
0.2094895
0.0001671774
0.0001535872
0.005166922
0.2558635
2.360856e-05
7.182381e-14
0.1216031
2.374657e-10
5.906257e-09
0.6198682
0.006200912
2.444758e-13
3.978925e-18
0.007220969
3.845581e-13
6.839167e-18
1.28724e-07
9.116069e-08
6.050483e-11
5.13729e-08
3.551815e-08
5.38307e-14
0.0002299098
1.865947e-12
0.009610549
2.98591e-06
1.525895e-08
1.746696e-10
2.869639e-10
0.2662187
3.156031e-05
3.535717e-06
0.1171264
3.062479e-09
0.1976396
0.9461905
2.895805e-05
3.340174e-12
3.803662e-07
7.582993e-17
0.0172432
9.586876e-11
7.45943e-11
5.330581e-08
5.079895e-08
0.1362921
4.729681e-09
1.627302e-15
0.1521346
7.450299e-09
2.877451e-15
0.002353158
6.361037e-14
2.16532e-05
6.011829e-16
0.001425022
0.001910721
0.8339373
8.173679e-05
2.483817e-11
2.459866e-06
0.0004441599
0.01549124
0.001141579
1.908667e-13
3.644056e-13
4.248128e-11
1.741966e-08
1.42035e-08
4.720662e-08
7.127434e-08
0.02141127
5.915888e-12
5.40087e-17
2.11182e-07
0.6919602
0.6821034
0.2550583
0.135638
0.0002133966
1.313153e-16
2.439133e-20
3.817705e-08
3.934158e-06
0.0005078068
0.0003757277
0.1051147
3.885768e-09
4.885282e-16
1.438919e-08
0.0007634122
2.411379e-14
0.0002192716
7.085138e-15
0.653202
0.6722481
0.003118919
4.866387e-09
7.611888e-09
5.326201e-06
0.0358186
2.034025e-11
3.255413e-15
0.157041
0.01154662
0.4287332
0.03739761
5.715995e-11
1.635163e-13
0.0001195987
0.2267897
0.0002804331
0.0002147799
0.1271171
5.737152e-06
0.2976405
4.62348e-06
1.205993e-06
0.005134331
0.02710076
0.09783315
4.603805e-12
0.001013729
6.488369e-13
2.163062e-12
0.00716711
1.956579e-10
0.006601469
2.246575e-12
7.431453e-20
1.253221e-10
0.005817012
2.126105e-12
4.136485e-20
0.1680462
2.150416e-09
2.144003e-13
0.194417
3.538589e-09
3.72695e-13
1.614518e-05
2.089339e-05
0.005275393
5.607754e-12
1.417372e-11
1.294947e-07
0.001788567
8.440325e-07
0.1738873
0.4501577
3.408382e-13
6.02579e-17
0.0002839517
1.491177e-05
4.230366e-16
0.002705861
7.556338e-14
3.33887e-06
5.319343e-17
0.002464167
3.973586e-14
3.403303e-15
0.03197225
2.015963e-11
1.392168e-14
2.163594e-05
1.824255e-05
1.411161e-05
0.04666676
8.651607e-11
2.362364e-13
0.0001250528
1.293928e-09
0.007358134
0.009339411
0.6337402
3.929296e-11
4.43643e-09
2.705707e-08
0.04772036
0.0003482303
0.03766631
0.000172517
0.005523995
0.01583071
7.216392e-05
6.259953e-09
2.525093e-09
1.055081e-12
9.007695e-06
7.131858e-05
1.219911e-14
0.0001276014
2.206637e-06
0.1569533
1.705225e-09
2.459491e-14
0.004937044
2.108103e-13
6.161268e-19
1.42921e-08
0.2361827
7.420137e-05
0.005825273
0.006435705
7.033518e-10
1.393856e-11
9.6876e-09
0.1348721
0.01690342
3.627852e-06
0.0003614917
4.647456e-05
6.459236e-05
0.246965
3.832918e-09
8.022818e-17
1.280126e-09
0.06375562
0.1486871
0.02470077
0.1110494
5.481902e-09
6.216382e-16
1.23512e-08
1.899477e-06
1.840656e-09
0.07100995
0.0002181503
0.6790519
0.0003189578
0.000260877
0.01218766
2.619415e-05
0.005043981
6.620185e-12
0.0009129893
5.960541e-13
0.009466002
0.1658418
4.043107e-12
0.06651544
1.042622e-08
0.006171983
3.627994e-13
5.6579e-19
0.03809772
3.680164e-09
0.005186918
3.038335e-13
2.224126e-19
2.150245e-07
0.001421369
8.383803e-15
1.224192e-18
0.08659346
0.09950867
5.582743e-08
2.359191e-08
0.2030597
7.124626e-08
7.955883e-15
0.0005617844
1.327825e-11
0.001596313
2.047811e-12
1.750518e-08
3.115761e-06
3.267406e-06
0.02382997
7.076643e-12
1.025193e-15
0.000996777
8.817495e-11
9.372335e-12
1.764309e-11
3.062564e-06
1.519007e-06
0.2069709
1.070813e-12
0.2281423
1.145677e-12
0.01656813
0.01334572
0.01149315
4.9745e-09
0.06391751
1.695114e-09
0.0001676934
4.99879e-15
0.0009250284
2.551506e-14
9.689015e-11
4.264137e-07
0.5808926
0.6269497
3.468205e-07
2.277932e-07
1.49325e-10
0.03345617
6.319371e-06
1.963548e-08
1.328263e-10
8.749812e-14
0.01493746
0.01749693
0.01423761
0.485212
1.197195e-05
1.966097e-07
0.8064072
0.7938491
0.01476262
0.3553039
0.0008631866
2.173857e-11
0.01993213
2.246127e-09
2.693444e-18
0.008759444
1.795453e-06
0.0001080601
0.1700252
3.362065e-09
1.111817e-14
5.364402e-07
3.691033e-06
2.649151e-06
7.004813e-06
2.299473e-12
9.553413e-07
6.853346e-07
0.03999165
9.901028e-10
1.37003e-17
5.836633e-10
0.001736443
3.599685e-14
6.271183e-21
2.865938e-10
1.576856e-06
5.529009e-07
5.389994e-05
5.906622e-05
0.5879025
0.6673752
2.486902e-08
2.678691e-08
1.74209e-07
0.6511406
0.6962001
0.0006823529
0.0002811135
1.73504e-15
4.400621e-05
2.625841e-16
0.5542416
1.627988e-07
1.611668e-06
2.385118e-08
7.708511e-06
0.03994557
3.058873e-11
6.10569e-15
0.003425327
3.561148e-07
0.1531589
2.68091e-09
6.534603e-15
2.632267e-07
0.1270132
1.541646e-09
3.298846e-15
4.780382e-05
4.177292e-05
3.047825e-07
0.1194717
1.152918e-09
2.715568e-15
0.2610733
0.005344187
0.001571458
0.05001298
2.123043e-08
0.05239469
0.01984302
6.246528e-08
1.362709e-06
1.399479e-06
6.730363e-05
0.0003755067
0.08058172
2.414625e-06
4.084463e-09
0.01395596
4.900114e-12
1.571773e-18
2.744223e-09
0.01323811
5.14125e-12
9.639995e-19
1.662988e-05
0.09073727
3.201944e-08
0.2078459
5.812123e-08
8.847417e-15
2.170356e-06
0.6702765
9.230752e-12
0.0002556887
5.220654e-07
0.01363018
6.786376e-12
2.128515e-08
9.423778e-18
5.93364e-14
6.271353e-14
0.08114232
0.0107916
0.009072671
0.00174314
0.0002244333
9.200013e-16
3.276159e-05
1.453832e-16
0.0004905234
1.020719e-07
3.214886e-06
2.898007e-09
2.730297e-08
9.727066e-11
4.488986e-07
0.0003816169
6.340521e-16
6.495522e-19
4.49212e-07
0.0004961953
1.039817e-15
9.729103e-19
1.268201e-10
1.209874e-10
0.02387719
0.3339388
5.225936e-05
1.308343e-09
1.483983e-17
0.04026093
4.376307e-10
0.273558
0.01256583
1.387051e-12
2.093921e-16
0.03353398
7.846804e-09
0.05367877
3.808309e-10
5.924433e-17
0.765504
1.225086e-08
3.300485e-11
6.959937e-07
0.00656495
0.4013261
0.1806924
5.117147e-14
2.84874e-12
0.0001925774
0.01921755
9.646018e-12
5.081589e-14
9.659517e-05
1.556437e-12
7.047814e-05
1.010812e-05
5.079439e-08
3.390778e-08
8.150077e-08
0.00411836
0.3175147
8.540287e-07
0.0008426024
0.1307832
5.177686e-10
1.460315e-12
0.1941408
7.922614e-05
0.01114944
8.997884e-13
1.18482e-16
0.3858163
1.260857e-11
4.58296e-09
0.2517532
0.08922326
0.05918795
7.962113e-08
2.628916e-05
0.003155516
0.08132329
0.01254471
0.0001095919
7.542815e-17
3.45995e-19
3.965467e-07
0.00304404
2.118784e-12
1.113389e-20
1.919021e-11
0.2653468
0.0008414373
0.3845629
0.003087983
0.01103169
5.196932e-11
0.001172533
0.000732537
6.700037e-09
4.059455e-09
0.06055374
0.01753723
0.0002379325
9.115e-06
0.01284811
5.146592e-12
2.652981e-14
0.001605867
1.072543e-13
4.107178e-12
4.473181e-12
1.469604e-08
0.001283748
0.5787771
7.048264e-07
7.019984e-07
0.3675261
0.0001100886
0.5924097
4.496507e-06
5.102126e-06
3.485156e-06
0.0001574691
0.000145862
0.001051888
2.237262e-06
0.002146773
2.676115e-14
3.00964e-17
0.01583854
6.146173e-12
3.788644e-14
0.0001015667
0.001494393
8.855908e-07
0.03002564
0.1879427
9.307864e-09
7.943369e-15
1.644791e-07
6.955576e-10
1.623814e-12
8.70227e-13
8.613149e-13
1.053156e-11
1.483359e-11
0.01739962
0.5300939
9.121275e-09
2.476854e-17
0.03964822
1.158388e-10
2.092168e-10
3.767097e-13
0.0001243557
6.275121e-07
6.816879e-09
6.107458e-11
0.0003711592
0.0002985675
0.06810286
0.0008761526
0.0005817283
0.01881387
3.48959e-09
3.504971e-07
0.06256218
6.649957e-15
0.03752588
3.589525e-15
0.03032055
3.985388e-14
0.001583553
1.216945e-13
0.3067602
0.3786076
6.981856e-05
5.085951e-15
6.580578e-05
7.123405e-16
0.000475741
3.753291e-05
6.01602e-07
8.898522e-07
0.07368203
0.001591238
0.001343771
0.005578601
0.001778244
1.802054e-09
0.008232384
1.463433e-12
3.30529e-19
0.01748422
2.928392e-06
7.156408e-06
1.012315e-14
1.121615e-12
0.6143796
0.0002213209
1.049947e-07
0.1402082
0.3762359
6.479844e-08
1.484878e-07
2.226312e-09
2.996134e-09
1.992332e-05
0.661906
0.01746928
1.641292e-10
0.7639796
0.05601307
1.115237e-08
0.1387768
1.784792e-08
1.583412e-15
8.593266e-09
3.221345e-05
0.00182713
0.0008814739
2.983392e-15
2.499854e-19
7.747617e-08
0.06036647
1.262231e-10
4.331469e-16
0.07481147
2.33708e-10
8.678816e-16
2.844323e-07
1.985742e-07
0.08289315
0.08875058
4.661311e-16
0.07660849
2.578826e-16
0.00038582
9.901339e-14
0.1498315
8.456087e-05
1.111317e-11
6.110297e-12
0.7340376
5.523883e-06
3.509951e-05
0.09084256
4.636621e-11
0.01757673
0.02101429
0.0453647
0.4244148
0.5746261
0.002618393
0.005542698
0.006974073
0.04279223
1.029425e-05
1.272386e-05
1.550353e-06
1.085391e-06
2.09011e-12
0.4224357
2.339865e-06
0.6661789
1.036073e-07
2.27731e-06
0.001244572
2.971698e-13
6.003094e-13
0.0006245833
7.990864e-08
3.053883e-06
0.0001048661
7.811891e-05
1.575366e-06
1.577142e-08
0.003939576
7.826584e-11
4.724912e-09
5.493946e-09
0.007116223
0.5640267
0.01262765
0.0006905465
1.817657e-15
1.602527e-19
5.882212e-08
1.126079e-08
2.469551e-09
0.001955163
0.08718956
1.126968e-08
6.718441e-10
6.161266e-05
1.190403e-17
1.375193e-22
0.0002312652
5.801487e-16
4.193877e-23
1.524379e-11
0.04222933
0.0003686039
0.08169647
4.428398e-11
0.0002674434
5.694009e-16
8.943079e-23
2.474632e-11
0.0001940155
3.098225e-16
4.479487e-23
0.6270064
0.07544981
2.239956e-07
9.314644e-10
4.610057e-05
0.001212298
2.180554e-14
2.17645e-21
1.119341e-10
1.531297e-05
1.545169e-18
2.970708e-25
3.119946e-12
1.570574e-05
8.14719e-05
1.12202e-09
0.003861646
7.868942e-14
1.374118e-18
6.133665e-08
1.916988e-10
2.881667e-16
1.180518e-05
0.002516384
5.582104e-14
5.724963e-06
0.1243036
1.002053e-07
0.01566045
0.2947085
0.0367389
0.01405176
0.2280184
7.677555e-06
1.956595e-05
1.767465e-05
0.02003584
5.78012e-12
5.357444e-15
0.02194986
7.513434e-12
4.139581e-15
1.320092e-05
0.06338067
0.0001705417
0.0002045138
0.002415235
9.395895e-15
1.448318e-12
1.456656e-05
0.004663175
1.780324e-09
0.0006568445
5.534614e-12
3.86946e-13
0.003141338
0.003322801
1.01048e-08
0.4100863
0.1955427
0.001991295
0.0007173173
2.1968e-15
8.360574e-21
0.000528844
1.2511e-15
4.811801e-21
1.815208e-09
2.830156e-09
3.907571e-08
1.709893e-06
1.158264e-07
0.0001610852
7.326699e-09
6.435354e-09
1.941818e-10
3.108968e-08
0.003811515
0.0322027
4.136771e-05
5.703557e-05
0.005688199
0.0006242795
0.0008262357
0.0005976978
8.463902e-09
0.003159266
0.1293512
0.1474924
1.313994e-09
0.001304758
1.084356e-14
9.856569e-21
1.235702e-05
0.03612848
0.001801396
0.386969
0.0009429809
9.476993e-05
1.551536e-15
0.0006821114
1.151976e-14
6.72716e-09
0.7149905
0.001064658
0.04027041
5.443316e-11
0.7407134
2.923569e-10
1.259516e-05
4.508343e-11
6.933059e-09
3.000244e-11
8.142848e-07
0.0001442928
0.003239479
0.002906521
0.07640696
8.709137e-09
0.09759495
4.544953e-09
4.0191e-16
0.4932502
0.09209717
0.1060999
2.845092e-13
0.09104802
0.02184588
0.01211122
9.925646e-10
7.582851e-10
1.32598e-13
0.1684269
2.827396e-06
2.736822e-07
0.001146821
0.001101749
4.246677e-08
0.1382861
0.1245136
2.872157e-07
0.0002106667
0.001135222
0.0009001533
3.261209e-15
6.252706e-20
1.615443e-08
0.8656157
1.901325e-12
0.1614807
5.360693e-11
6.556772e-08
0.07687131
0.07682741
4.357833e-11
2.882619e-11
8.059968e-08
7.216953e-07
0.0005857767
2.110284e-12
1.969267e-13
3.084282e-10
5.204612e-10
0.0007124348
4.612081e-11
0.06737354
1.04724e-13
0.05418201
5.910855e-14
0.2249589
2.73253e-07
6.395457e-05
1.356369e-05
6.340463e-07
2.464025e-05
0.0001514143
0.0001178379
3.037385e-06
0.3591675
1.331627e-11
0.0005341343
0.000224501
0.4375763
0.02098446
2.751164e-11
6.796984e-06
0.0131871
0.0006283433
0.01431496
0.0005437445
4.479408e-08
5.654743e-14
0.1092028
7.003625e-10
3.686402e-11
1.289724e-05
8.334342e-19
3.1126e-24
2.41714e-12
3.578586e-05
1.983917e-17
1.151432e-24
0.001335316
3.114132e-07
4.7584e-05
4.3434e-10
8.169901e-12
2.773001e-09
0.2064725
2.536287e-05
0.02146532
8.171594e-12
9.992205e-15
3.352015e-05
0.02675637
1.437063e-11
1.759162e-14
0.001422305
2.402343e-09
0.0004117041
6.216066e-16
4.063231e-21
1.849226e-09
0.0004303148
7.165483e-16
2.725471e-21
0.0258394
2.847047e-15
0.01489157
0.00121941
5.986998e-15
1.111564e-19
2.521294e-08
0.0007350144
8.071232e-15
4.814632e-22
4.372029e-11
0.0008510916
1.227029e-14
5.738889e-22
3.836778e-11
8.541208e-07
1.80991e-12
4.969392e-09
3.306656e-05
2.617486e-08
4.229252e-09
9.998267e-11
0.0001096863
5.672464e-17
5.608282e-23
0.630376
0.3129691
2.158771e-13
0.0008336532
2.238261e-13
0.001716238
1.234909e-13
1.074841e-06
0.004966515
0.02814158
0.04426492
0.0006949604
0.0008346942
2.382654e-05
1.833063e-16
0.0006664309
5.256137e-15
0.001487334
2.177361e-05
0.003005092
9.673935e-14
7.422142e-16
1.61313e-05
0.003158305
1.059964e-13
5.060173e-16
5.051258e-05
0.01755327
0.08338965
5.447282e-12
0.07913423
0.0008878959
2.721835e-07
0.07069758
0.03203718
0.01512115
0.0001275643
0.0001189926
0.3535468
0.3883033
0.0007381159
0.003980112
4.296575e-13
0.7550683
4.751245e-07
0.002815453
0.1479134
0.05368874
0.04604859
0.01534369
0.003720119
5.413428e-08
1.350915e-06
2.507068e-08
0.0004563224
1.192322e-12
1.079755e-13
2.056686e-10
0.0008858209
1.242959e-05
0.02353423
0.001696079
0.01291306
7.874932e-10
8.877971e-05
0.002545337
0.003916958
9.616112e-07
0.0260314
1.486488e-05
1.378466e-12
3.153117e-06
0.08539823
4.236521e-08
0.528551
1.433392e-05
4.492955e-16
0.003189192
9.894467e-14
0.3695221
8.521531e-07
9.08689e-12
0.09384222
2.424681e-13
0.02838335
2.708988e-11
0.0001271824
1.159958e-13
4.98737e-07
5.845046e-07
7.057971e-06
0.3926412
1.5401e-05
2.089836e-10
7.410826e-10
0.4739769
1.317715e-06
0.08964065
3.600656e-07
0.5025102
5.082862e-06
0.06342717
1.016539e-10
8.481449e-15
0.004510968
3.907142e-09
0.0003023964
2.827779e-16
4.131988e-21
0.000640768
0.0006584082
0.0005896599
3.719908e-07
0.01071623
9.026579e-13
2.833696e-17
0.3437989
0.01194354
1.50717e-05
1.290366e-18
3.837968e-25
4.176108e-12
0.02645991
0.01137456
0.0008393902
1.760005e-06
2.248883e-06
0.001170806
2.120853e-14
3.83844e-06
1.291198e-14
0.9726041
0.9714661
0.0005532374
1.964354e-15
1.218554e-21
3.481762e-10
0.0007840355
3.782135e-15
2.377398e-21
4.800566e-10
7.34277e-09
9.426014e-09
3.326018e-07
1.266585e-08
5.046017e-07
1.400124e-09
0.005832674
5.923496e-13
1.322425e-19
0.0530043
1.105713e-10
2.181624e-13
0.0001003738
0.4163278
1.768628e-08
9.385871e-11
1.141256e-09
0.001461996
1.490863e-14
1.177283e-20
0.002162573
3.744424e-12
2.278383e-11
0.06042243
0.196277
0.0169372
0.2205109
4.620566e-07
0.002119674
0.001707173
1.819277e-05
5.75052e-08
6.304109e-08
1.331629e-12
1.144201e-05
1.077034e-18
1.162991e-25
7.548736e-06
3.203429e-19
1.748868e-25
4.148181e-12
0.0002103215
2.054007e-06
1.107838e-08
0.004142863
1.298972e-13
3.645496e-19
1.334356e-10
0.003685415
0.1342464
2.840309e-15
0.05653476
8.559872e-17
0.0007321445
0.1027459
8.98257e-07
0.01381877
0.003631755
3.460468e-10
1.22135e-07
0.001202851
0.02395158
0.02977746
0.7061323
0.004645457
2.5041e-13
1.34074e-19
2.510889e-09
0.0002372222
5.444204e-16
7.468873e-06
1.627149e-17
0.1083971
7.198528e-16
2.834457e-10
4.865313e-07
0.1181741
1.676212e-15
0.000693
3.834188e-05
0.005413312
0.0004936485
1.917215e-09
1.305695e-09
3.53494e-09
1.090465e-12
2.267112e-06
8.578218e-18
0.0006984851
2.67208e-15
0.05220015
4.768143e-10
5.773825e-05
1.017061e-17
8.276448e-23
0.000192729
3.807282e-16
2.654085e-23
1.561534e-11
0.0871272
6.932153e-13
2.099782e-12
0.0002840127
1.78067e-11
2.786364e-09
1.958123e-09
1.134158e-11
0.07768503
5.927521e-05
2.480476e-06
3.340458e-07
8.222402e-08
0.0001040304
7.02927e-09
0.00223754
3.084756e-14
9.005451e-20
0.0002248078
0.000174898
2.208577e-08
3.8831e-11
2.405331e-11
0.002923062
7.065432e-13
6.144527e-21
2.117374e-07
0.000141639
8.621443e-17
1.259549e-19
3.768706e-10
0.09752499
0.1981837
1.206996e-05
0.5344465
0.01245343
6.388115e-12
0.3196034
5.032196e-12
0.3385956
0.006241033
0.02398254
1.773545e-11
0.0001364415
9.521562e-14
1.252757e-06
5.116101e-09
0.002358519
3.690509e-06
8.563421e-08
8.797348e-07
0.07919794
0.0004237621